[{"bandgap": 1.75, "formula": "BaZrS3"}, {"bandgap": 2.17, "formula": "BaHfS3"}, {"bandgap": 2.05, "formula": "SrZrS3"}, {"bandgap": 2.32, "formula": "SrHfS3"}, {"bandgap": 1.76, "formula": "BaZrS3"}, {"bandgap": 1.63, "formula": "BaZrS3"}, {"bandgap": 3.0, "formula": "YScS3"}]
