[
    {
        "bandgap": 1.75,
        "formula": "BaZrS3"
    },
    {
        "bandgap": 1.82,
        "formula": "BaZrS3"
    },
    {
        "bandgap": 1.89,
        "formula": "BaZrS3"
    },
    {
        "bandgap": 1.94,
        "formula": "BaZrS3"
    },
    {
        "bandgap": 2.17,
        "formula": "BaHfS3"
    },
    {
        "bandgap": 2.06,
        "formula": "BaHfS3"
    },
    {
        "bandgap": 2.05,
        "formula": "SrZrS3"
    },
    {
        "bandgap": 2.14,
        "formula": "SrZrS3"
    },
    {
        "bandgap": 2.32,
        "formula": "SrHfS3"
    },
    {
        "bandgap": 2.41,
        "formula": "SrHfS3"
    },
    {
        "bandgap": 1.76,
        "formula": "BaZr(S1-xSex)3"
    },
    {
        "bandgap": 1.63,
        "formula": "Ba(Zr1-xTix)S3"
    },
    {
        "bandgap": 1.51,
        "formula": "Ba(Zr1-xTix)S3"
    },
    {
        "bandgap": 3.0,
        "formula": "YScS3"
    },
    {
        "bandgap": 1.33,
        "formula": "Ba2ZrS4"
    },
    {
        "bandgap": 1.28,
        "formula": "Ba3Zr2S7"
    }
]